[Molden Format]
[GTO]
    1 0
 p   3 1.00
       5.0331513    0.1559162700
       1.1695961    0.6076837200
       0.3803890    0.3919573900

    2 0
 p   3 1.00
       5.0331513    0.1559162700
       1.1695961    0.6076837200
       0.3803890    0.3919573900

    3 0
 p   3 1.00
       5.0331513    0.1559162700
       1.1695961    0.6076837200
       0.3803890    0.3919573900

    4 0
 p   3 1.00
       5.0331513    0.1559162700
       1.1695961    0.6076837200
       0.3803890    0.3919573900

    5 0
 p   3 1.00
       5.0331513    0.1559162700
       1.1695961    0.6076837200
       0.3803890    0.3919573900

    6 0
 p   3 1.00
       5.0331513    0.1559162700
       1.1695961    0.6076837200
       0.3803890    0.3919573900

[MO]
Ene=  -2.
Spin= Alpha
Occup= 2.0000
    1   0.40824829
    2  -0.40824829
    3   0.40824829
    4  -0.40824829
    5   0.40824829
    6  -0.40824829
Ene=  -1.
Spin= Alpha
Occup= 2.0000
    1  -0.28867513
    2  -0.28867513
    3   0.57735027
    4  -0.28867513
    5  -0.28867513
    6   0.57735027
Ene=  -1.
Spin= Alpha
Occup= 2.0000
    1  -0.50000000
    2   0.50000000
    3   0.00000000
    4  -0.50000000
    5   0.50000000
    6   0.00000000
Ene=   1.
Spin= Alpha
Occup= 0.0000
    1   0.50000000
    2   0.50000000
    3   0.00000000
    4  -0.50000000
    5  -0.50000000
    6   0.00000000
Ene=   1.
Spin= Alpha
Occup= 0.0000
    1   0.28867513
    2  -0.28867513
    3  -0.57735027
    4  -0.28867513
    5   0.28867513
    6   0.57735027
Ene=   2.
Spin= Alpha
Occup= 0.0000
    1  -0.40824829
    2  -0.40824829
    3  -0.40824829
    4  -0.40824829
    5  -0.40824829
    6  -0.40824829
 [Atoms] AU
   H  1  1      0.0000      0.0000      0.0000
   H  2  1      0.0000      0.0000      2.6164
   H  3  1      2.2659      0.0000      3.9247
   H  4  1      4.5318      0.0000      2.6164
   H  5  1      4.5318      0.0000     -0.0000
   H  6  1      2.2659      0.0000     -1.3082
