[Molden Format]
[GTO]
    1 0
 p   3 1.00
       5.0331513    0.1559162700
       1.1695961    0.6076837200
       0.3803890    0.3919573900

    2 0
 p   3 1.00
       5.0331513    0.1559162700
       1.1695961    0.6076837200
       0.3803890    0.3919573900

    3 0
 p   3 1.00
       5.0331513    0.1559162700
       1.1695961    0.6076837200
       0.3803890    0.3919573900

    4 0
 p   3 1.00
       5.0331513    0.1559162700
       1.1695961    0.6076837200
       0.3803890    0.3919573900

    5 0
 p   3 1.00
       5.0331513    0.1559162700
       1.1695961    0.6076837200
       0.3803890    0.3919573900

    6 0
 p   3 1.00
       5.0331513    0.1559162700
       1.1695961    0.6076837200
       0.3803890    0.3919573900

[MO]
Ene=  -2.
Spin= Alpha
Occup= 2.0000
    1   0.00000000
    2   0.00000000
    3   0.99824829
    4   0.00000000
    5   0.00000000
    6   0.00000000
    7   0.00000000
    8   0.00000000
    9   0.00000000
   10   0.00000000
   11   0.00000000
   12   0.00000000
   13   0.00000000
   14   0.00000000
   15   0.00000000
   16   0.00000000
   17   0.00000000
   18   0.00000000
Ene=  -1.
Spin= Alpha
Occup= 2.0000
    1   0.00000000
    2   0.00000000
    3   0.00000000
    4   0.00000000
    5   0.00000000
    6   0.99000000
    7   0.00000000
    8   0.00000000
    9   0.00000000
   10   0.00000000
   11   0.00000000
   12   0.00000000
   13   0.00000000
   14   0.00000000
   15   0.00000000
   16   0.00000000
   17   0.00000000
   18   0.00000000
Ene=  -1.
Spin= Alpha
Occup= 2.0000
    1   0.00000000
    2   0.00000000
    3   0.00000000
    4   0.00000000
    5   0.00000000
    6   0.00000000
    7   0.99000000
    8   0.00000000
    9   0.00000000
   10   0.00000000
   11   0.00000000
   12   0.00000000
   13   0.00000000
   14   0.00000000
   15   0.00000000
   16   0.00000000
   17   0.00000000
   18   0.00000000
Ene=   1.
Spin= Alpha
Occup= 0.0000
    1   0.00000000
    2   0.00000000
    3   0.00000000
    4   0.00000000
    5   0.00000000
    6   0.00000000
    7   0.00000000
    8   0.00000000
    9   0.00000000
   10   0.99000000
   11   0.00000000
   12   0.00000000
   13   0.00000000
   14   0.00000000
   15   0.00000000
   16   0.00000000
   17   0.00000000
   18   0.00000000
Ene=   1.
Spin= Alpha
Occup= 0.0000
    1   0.00000000
    2   0.00000000
    3   0.00000000
    4   0.00000000
    5   0.00000000
    6   0.00000000
    7   0.00000000
    8   0.00000000
    9   0.00000000
   10   0.00000000
   11   0.00000000
   12   0.00000000
   13   0.99000000
   14   0.00000000
   15   0.00000000
   16   0.00000000
   17   0.00000000
   18   0.00000000
Ene=   2.
Spin= Alpha
Occup= 0.0000
    1   0.00000000
    2   0.00000000
    3   0.00000000
    4   0.00000000
    5   0.00000000
    6   0.00000000
    7   0.00000000
    8   0.00000000
    9   0.00000000
   10   0.00000000
   11   0.00000000
   12   0.00000000
   13   0.00000000
   14   0.00000000
   15   0.00000000
   16   0.99000000
   17   0.00000000
   18   0.00000000
 [Atoms] AU
   C  1  6      0.0000      0.0000      0.0000
   C  2  6      0.0000      0.0000      2.6164
   C  3  6      2.2659      0.0000      3.9247
   C  4  6      4.5318      0.0000      2.6164
   C  5  6      4.5318      0.0000     -0.0000
   C  6  6      2.2659      0.0000     -1.3082
   H  7  1      2.2659      0.0000     -3.3342
   H  8  1      6.2864      0.0000     -1.0130
   H  9  1      6.2864      0.0000      3.6294
   H 10  1      2.2659      0.0000      5.9507
   H 11  1     -1.7546      0.0000      3.6294
   H 12  1     -1.7546      0.0000     -1.0130
