[Molden Format]
[GTO]

    1 0
 s   6 1.00
      71.6168370    0.1543289700
      13.0450960    0.5353281400
       3.5305122    0.4446345400
       2.9412494    0.0000000000
       0.6834831    0.0000000000
       0.2222899    0.0000000000
 s   6 1.00
      71.6168370    0.0000000000
      13.0450960    0.0000000000
       3.5305122    0.0000000000
       2.9412494   -0.0999672300
       0.6834831    0.3995128300
       0.2222899    0.7001154700
 p   3 1.00
       2.9412494    0.1559162700
       0.6834831    0.6076837200
       0.2222899    0.3919573900

    2 0
 s   6 1.00
     130.7093200    0.1543289700
      23.8088610    0.5353281400
       6.4436083    0.4446345400
       5.0331513    0.0000000000
       1.1695961    0.0000000000
       0.3803890    0.0000000000
 s   6 1.00
     130.7093200    0.0000000000
      23.8088610    0.0000000000
       6.4436083    0.0000000000
       5.0331513   -0.0999672300
       1.1695961    0.3995128300
       0.3803890    0.7001154700
 p   3 1.00
       5.0331513    0.1559162700
       1.1695961    0.6076837200
       0.3803890    0.3919573900

    3 0
 s   3 1.00
       3.4252509    0.1543289700
       0.6239137    0.5353281400
       0.1688554    0.4446345400

    4 0
 s   3 1.00
       3.4252509    0.1543289700
       0.6239137    0.5353281400
       0.1688554    0.4446345400
[SCFCONV]
scf-first  1  THROUGH  18
     -112.1284257116
     -112.2793101892
     -112.3534211986
     -112.3536759382
     -112.3536950144
     -112.3536974230
     -112.3536975085
     -112.3536975095
     -112.3536975095
     -112.3536975095
     -112.3536975095
     -112.3536975095
     -112.3536975095
     -112.3536975095
     -112.3536975095
     -112.3536975095
     -112.3536975095
     -112.3536975095

[5D]

[MO]
Ene=  -20.3116
Spin= Alpha
Occup= 2.0000
    1       -0.000527
    2        0.007376
    3       -0.000021
    4       -0.000000
    5        0.006365
    6       -0.994271
    7       -0.026097
    8       -0.000007
    9       -0.000000
   10        0.005728
   11       -0.000228
   12       -0.000261
Ene=  -11.1254
Spin= Alpha
Occup= 2.0000
    1       -0.992614
    2       -0.032973
    3        0.000025
    4       -0.000000
    5       -0.000818
    6       -0.000117
    7        0.005842
    8        0.000007
    9        0.000000
   10       -0.001642
   11        0.006501
   12        0.006500
Ene=   -1.3419
Spin= Alpha
Occup= 2.0000
    1        0.123834
    2       -0.277940
    3        0.000297
    4        0.000000
    5       -0.158803
    6        0.218885
    7       -0.765043
    8       -0.000124
    9       -0.000001
   10        0.173191
   11       -0.031895
   12       -0.031673
Ene=   -0.8037
Spin= Alpha
Occup= 2.0000
    1        0.185558
    2       -0.578391
    3       -0.001630
    4       -0.000023
    5        0.222309
    6       -0.100861
    7        0.439327
    8       -0.000277
    9       -0.000005
   10        0.170150
   11       -0.267025
   12       -0.261968
Ene=   -0.6388
Spin= Alpha
Occup= 2.0000
    1        0.000579
    2       -0.001898
    3        0.531989
    4        0.003323
    5       -0.004309
    6       -0.001500
    7        0.007678
    8        0.438663
    9        0.002740
   10        0.006721
   11        0.297989
   12       -0.299643
Ene=   -0.5443
Spin= Alpha
Occup= 2.0000
    1       -0.030086
    2        0.093799
    3        0.005557
    4        0.000018
    5        0.448443
    6        0.092676
    7       -0.494828
    8        0.008016
    9        0.000038
   10       -0.678842
   11       -0.161110
   12       -0.162507
Ene=   -0.4462
Spin= Alpha
Occup= 2.0000
    1       -0.000005
    2        0.000022
    3        0.003813
    4       -0.610465
    5       -0.000016
    6       -0.000000
    7        0.000003
    8        0.004204
    9       -0.673159
   10        0.000020
   11        0.000003
   12        0.000002
Ene=   -0.3536
Spin= Alpha
Occup= 2.0000
    1       -0.000321
    2        0.002136
    3       -0.180113
    4       -0.001125
    5       -0.001737
    6        0.000150
    7       -0.000769
    8        0.872429
    9        0.005449
   10        0.005342
   11       -0.355168
   12        0.359401
Ene=    0.2858
Spin= Alpha
Occup= 0.0000
    1       -0.000011
    2        0.000061
    3        0.005129
    4       -0.821158
    5       -0.000030
    6        0.000001
    7       -0.000002
    8       -0.004813
    9        0.770600
   10        0.000007
   11       -0.000034
   12       -0.000034
Ene=    0.6201
Spin= Alpha
Occup= 0.0000
    1        0.201978
    2       -1.262918
    3        0.009813
    4       -0.000018
    5        0.491651
    6       -0.021771
    7        0.117253
    8       -0.000868
    9        0.000027
   10       -0.191853
   11        0.891679
   12        0.895245
Ene=    0.7457
Spin= Alpha
Occup= 0.0000
    1        0.004629
    2       -0.031575
    3       -1.159433
    4       -0.007242
    5       -0.024638
    6       -0.003695
    7        0.026059
    8        0.318933
    9        0.001992
   10       -0.029861
   11        0.845148
   12       -0.840838
Ene=    0.9210
Spin= Alpha
Occup= 0.0000
    1       -0.107205
    2        0.724738
    3       -0.037219
    4       -0.000232
    5        1.149019
    6        0.118080
    7       -0.886182
    8        0.007654
    9        0.000057
   10        0.938970
   11        0.122705
   12        0.061169
[Atoms] AU
C          1     6         0.0021145386         0.0000000000        -1.1458229866
O          2     8         0.0000000000         0.0000000000         1.1394188421
H          3     1         1.7725477356         0.0111500657        -2.2380521774
H          4     1        -1.7977251853        -0.0111500657        -2.2022342707
