[Molden Format]
[Molpro variables]
RH=                      4.4863585885838333
ZH=                      4.7004289124697447
R0_1=                      4.5528768347229311
ZC1_1=                      2.6541459331066721
R0_2=                      4.5249221309347876
ZC1_2=                      1.3766235706101504
TH=                     30.0000000000000000
GX1=                      4.4863585885838333
GY1=                      0.0000000000000000
GZ1=                      4.7004289124697447
GX2=                      2.2431792942919171
GY2=                      3.8853005082000984
GZ2=                      4.7004289124697447
GX3=                     -2.2431792942919158
GY3=                      3.8853005082000989
GZ3=                      4.7004289124697447
GX4=                     -4.4863585885838333
GY4=                      0.0000000000000000
GZ4=                      4.7004289124697447
GX5=                     -2.2431792942919184
GY5=                     -3.8853005082000971
GZ5=                      4.7004289124697447
GX6=                      2.2431792942919171
GY6=                     -3.8853005082000984
GZ6=                      4.7004289124697447
GX7=                      4.5528768347229311
GY7=                      0.0000000000000000
GZ7=                      2.6541459331066721
GX8=                      3.9186975155359423
GY8=                      2.2624610654673933
GZ8=                      1.3766235706101504
GX9=                      2.2764384173614660
GY9=                      3.9429069991717434
GZ9=                      2.6541459331066721
GX10=                      0.0000000000000000
GY10=                      4.5249221309347876
GZ10=                      1.3766235706101504
GX11=                     -2.2764384173614647
GY11=                      3.9429069991717438
GZ11=                      2.6541459331066721
GX12=                     -3.9186975155359423
GY12=                      2.2624610654673933
GZ12=                      1.3766235706101504
GX13=                     -4.5528768347229311
GY13=                      0.0000000000000000
GZ13=                      2.6541459331066721
GX14=                     -3.9186975155359418
GY14=                     -2.2624610654673942
GZ14=                      1.3766235706101504
GX15=                     -2.2764384173614678
GY15=                     -3.9429069991717420
GZ15=                      2.6541459331066721
GX16=                      0.0000000000000000
GY16=                     -4.5249221309347876
GZ16=                      1.3766235706101504
GX17=                      2.2764384173614660
GY17=                     -3.9429069991717434
GZ17=                      2.6541459331066721
GX18=                      3.9186975155359409
GY18=                     -2.2624610654673960
GZ18=                      1.3766235706101504
GX19=                      4.5528768347229311
GY19=                      0.0000000000000000
GZ19=                     -2.6541459331066721
GX20=                      3.9186975155359423
GY20=                      2.2624610654673933
GZ20=                     -1.3766235706101504
GX21=                      2.2764384173614660
GY21=                      3.9429069991717434
GZ21=                     -2.6541459331066721
GX22=                      0.0000000000000000
GY22=                      4.5249221309347876
GZ22=                     -1.3766235706101504
GX23=                     -2.2764384173614647
GY23=                      3.9429069991717438
GZ23=                     -2.6541459331066721
GX24=                     -3.9186975155359423
GY24=                      2.2624610654673933
GZ24=                     -1.3766235706101504
GX25=                     -4.5528768347229311
GY25=                      0.0000000000000000
GZ25=                     -2.6541459331066721
GX26=                     -3.9186975155359418
GY26=                     -2.2624610654673942
GZ26=                     -1.3766235706101504
GX27=                     -2.2764384173614678
GY27=                     -3.9429069991717420
GZ27=                     -2.6541459331066721
GX28=                      0.0000000000000000
GY28=                     -4.5249221309347876
GZ28=                     -1.3766235706101504
GX29=                      2.2764384173614660
GY29=                     -3.9429069991717434
GZ29=                     -2.6541459331066721
GX30=                      3.9186975155359409
GY30=                     -2.2624610654673960
GZ30=                     -1.3766235706101504
GX31=                      4.4863585885838333
GY31=                      0.0000000000000000
GZ31=                     -4.7004289124697447
GX32=                      2.2431792942919171
GY32=                      3.8853005082000984
GZ32=                     -4.7004289124697447
GX33=                     -2.2431792942919158
GY33=                      3.8853005082000989
GZ33=                     -4.7004289124697447
GX34=                     -4.4863585885838333
GY34=                      0.0000000000000000
GZ34=                     -4.7004289124697447
GX35=                     -2.2431792942919184
GY35=                     -3.8853005082000971
GZ35=                     -4.7004289124697447
GX36=                      2.2431792942919171
GY36=                     -3.8853005082000984
GZ36=                     -4.7004289124697447
[Atoms] Angs
H     1    1         2.3740787165        0.0000000000        2.4873598530
H     2    1         1.1870393582        2.0560124791        2.4873598530
H     3    1        -1.1870393582        2.0560124791        2.4873598530
H     4    1        -2.3740787165        0.0000000000        2.4873598530
H     5    1        -1.1870393582       -2.0560124791        2.4873598530
H     6    1         1.1870393582       -2.0560124791        2.4873598530
C     7    6         2.4092786563        0.0000000000        1.4045135372
C     8    6         2.0736854142        1.1972428321        0.7284778189
C     9    6         1.2046393282        2.0864965212        1.4045135372
C    10    6         0.0000000000        2.3944856642        0.7284778189
C    11    6        -1.2046393282        2.0864965212        1.4045135372
C    12    6        -2.0736854142        1.1972428321        0.7284778189
C    13    6        -2.4092786563        0.0000000000        1.4045135372
C    14    6        -2.0736854142       -1.1972428321        0.7284778189
C    15    6        -1.2046393282       -2.0864965212        1.4045135372
C    16    6         0.0000000000       -2.3944856642        0.7284778189
C    17    6         1.2046393282       -2.0864965212        1.4045135372
C    18    6         2.0736854142       -1.1972428321        0.7284778189
C    19    6         2.4092786563        0.0000000000       -1.4045135372
C    20    6         2.0736854142        1.1972428321       -0.7284778189
C    21    6         1.2046393282        2.0864965212       -1.4045135372
C    22    6         0.0000000000        2.3944856642       -0.7284778189
C    23    6        -1.2046393282        2.0864965212       -1.4045135372
C    24    6        -2.0736854142        1.1972428321       -0.7284778189
C    25    6        -2.4092786563        0.0000000000       -1.4045135372
C    26    6        -2.0736854142       -1.1972428321       -0.7284778189
C    27    6        -1.2046393282       -2.0864965212       -1.4045135372
C    28    6         0.0000000000       -2.3944856642       -0.7284778189
C    29    6         1.2046393282       -2.0864965212       -1.4045135372
C    30    6         2.0736854142       -1.1972428321       -0.7284778189
H    31    1         2.3740787165        0.0000000000       -2.4873598530
H    32    1         1.1870393582        2.0560124791       -2.4873598530
H    33    1        -1.1870393582        2.0560124791       -2.4873598530
H    34    1        -2.3740787165        0.0000000000       -2.4873598530
H    35    1        -1.1870393582       -2.0560124791       -2.4873598530
H    36    1         1.1870393582       -2.0560124791       -2.4873598530
[GTO]
  1 0
 s    3 1.00
  0.3425250900D+01  0.1543289707D+00
  0.6239137300D+00  0.5353281424D+00
  0.1688554000D+00  0.4446345420D+00
  
  4 0
 s    3 1.00
  0.3425250900D+01  0.1543289707D+00
  0.6239137300D+00  0.5353281424D+00
  0.1688554000D+00  0.4446345420D+00
  
 31 0
 s    3 1.00
  0.3425250900D+01  0.1543289707D+00
  0.6239137300D+00  0.5353281424D+00
  0.1688554000D+00  0.4446345420D+00
  
 34 0
 s    3 1.00
  0.3425250900D+01  0.1543289707D+00
  0.6239137300D+00  0.5353281424D+00
  0.1688554000D+00  0.4446345420D+00
  
  2 0
 s    3 1.00
  0.3425250900D+01  0.1543289707D+00
  0.6239137300D+00  0.5353281424D+00
  0.1688554000D+00  0.4446345420D+00
  
  3 0
 s    3 1.00
  0.3425250900D+01  0.1543289707D+00
  0.6239137300D+00  0.5353281424D+00
  0.1688554000D+00  0.4446345420D+00
  
  5 0
 s    3 1.00
  0.3425250900D+01  0.1543289707D+00
  0.6239137300D+00  0.5353281424D+00
  0.1688554000D+00  0.4446345420D+00
  
  6 0
 s    3 1.00
  0.3425250900D+01  0.1543289707D+00
  0.6239137300D+00  0.5353281424D+00
  0.1688554000D+00  0.4446345420D+00
  
 32 0
 s    3 1.00
  0.3425250900D+01  0.1543289707D+00
  0.6239137300D+00  0.5353281424D+00
  0.1688554000D+00  0.4446345420D+00
  
 33 0
 s    3 1.00
  0.3425250900D+01  0.1543289707D+00
  0.6239137300D+00  0.5353281424D+00
  0.1688554000D+00  0.4446345420D+00
  
 35 0
 s    3 1.00
  0.3425250900D+01  0.1543289707D+00
  0.6239137300D+00  0.5353281424D+00
  0.1688554000D+00  0.4446345420D+00
  
 36 0
 s    3 1.00
  0.3425250900D+01  0.1543289707D+00
  0.6239137300D+00  0.5353281424D+00
  0.1688554000D+00  0.4446345420D+00
  
  7 0
 s    3 1.00
  0.7161683700D+02  0.1543289700D+00
  0.1304509600D+02  0.5353281400D+00
  0.3530512200D+01  0.4446345400D+00
 s    3 1.00
  0.2941249400D+01 -0.9996722841D-01
  0.6834831000D+00  0.3995128277D+00
  0.2222899200D+00  0.7001154659D+00
 p    3 1.00
  0.2941249400D+01  0.1559162705D+00
  0.6834831000D+00  0.6076837218D+00
  0.2222899200D+00  0.3919573912D+00
  
 13 0
 s    3 1.00
  0.7161683700D+02  0.1543289700D+00
  0.1304509600D+02  0.5353281400D+00
  0.3530512200D+01  0.4446345400D+00
 s    3 1.00
  0.2941249400D+01 -0.9996722841D-01
  0.6834831000D+00  0.3995128277D+00
  0.2222899200D+00  0.7001154659D+00
 p    3 1.00
  0.2941249400D+01  0.1559162705D+00
  0.6834831000D+00  0.6076837218D+00
  0.2222899200D+00  0.3919573912D+00
  
 19 0
 s    3 1.00
  0.7161683700D+02  0.1543289700D+00
  0.1304509600D+02  0.5353281400D+00
  0.3530512200D+01  0.4446345400D+00
 s    3 1.00
  0.2941249400D+01 -0.9996722841D-01
  0.6834831000D+00  0.3995128277D+00
  0.2222899200D+00  0.7001154659D+00
 p    3 1.00
  0.2941249400D+01  0.1559162705D+00
  0.6834831000D+00  0.6076837218D+00
  0.2222899200D+00  0.3919573912D+00
  
 25 0
 s    3 1.00
  0.7161683700D+02  0.1543289700D+00
  0.1304509600D+02  0.5353281400D+00
  0.3530512200D+01  0.4446345400D+00
 s    3 1.00
  0.2941249400D+01 -0.9996722841D-01
  0.6834831000D+00  0.3995128277D+00
  0.2222899200D+00  0.7001154659D+00
 p    3 1.00
  0.2941249400D+01  0.1559162705D+00
  0.6834831000D+00  0.6076837218D+00
  0.2222899200D+00  0.3919573912D+00
  
  8 0
 s    3 1.00
  0.7161683700D+02  0.1543289700D+00
  0.1304509600D+02  0.5353281400D+00
  0.3530512200D+01  0.4446345400D+00
 s    3 1.00
  0.2941249400D+01 -0.9996722841D-01
  0.6834831000D+00  0.3995128277D+00
  0.2222899200D+00  0.7001154659D+00
 p    3 1.00
  0.2941249400D+01  0.1559162705D+00
  0.6834831000D+00  0.6076837218D+00
  0.2222899200D+00  0.3919573912D+00
  
 12 0
 s    3 1.00
  0.7161683700D+02  0.1543289700D+00
  0.1304509600D+02  0.5353281400D+00
  0.3530512200D+01  0.4446345400D+00
 s    3 1.00
  0.2941249400D+01 -0.9996722841D-01
  0.6834831000D+00  0.3995128277D+00
  0.2222899200D+00  0.7001154659D+00
 p    3 1.00
  0.2941249400D+01  0.1559162705D+00
  0.6834831000D+00  0.6076837218D+00
  0.2222899200D+00  0.3919573912D+00
  
 14 0
 s    3 1.00
  0.7161683700D+02  0.1543289700D+00
  0.1304509600D+02  0.5353281400D+00
  0.3530512200D+01  0.4446345400D+00
 s    3 1.00
  0.2941249400D+01 -0.9996722841D-01
  0.6834831000D+00  0.3995128277D+00
  0.2222899200D+00  0.7001154659D+00
 p    3 1.00
  0.2941249400D+01  0.1559162705D+00
  0.6834831000D+00  0.6076837218D+00
  0.2222899200D+00  0.3919573912D+00
  
 18 0
 s    3 1.00
  0.7161683700D+02  0.1543289700D+00
  0.1304509600D+02  0.5353281400D+00
  0.3530512200D+01  0.4446345400D+00
 s    3 1.00
  0.2941249400D+01 -0.9996722841D-01
  0.6834831000D+00  0.3995128277D+00
  0.2222899200D+00  0.7001154659D+00
 p    3 1.00
  0.2941249400D+01  0.1559162705D+00
  0.6834831000D+00  0.6076837218D+00
  0.2222899200D+00  0.3919573912D+00
  
 20 0
 s    3 1.00
  0.7161683700D+02  0.1543289700D+00
  0.1304509600D+02  0.5353281400D+00
  0.3530512200D+01  0.4446345400D+00
 s    3 1.00
  0.2941249400D+01 -0.9996722841D-01
  0.6834831000D+00  0.3995128277D+00
  0.2222899200D+00  0.7001154659D+00
 p    3 1.00
  0.2941249400D+01  0.1559162705D+00
  0.6834831000D+00  0.6076837218D+00
  0.2222899200D+00  0.3919573912D+00
  
 24 0
 s    3 1.00
  0.7161683700D+02  0.1543289700D+00
  0.1304509600D+02  0.5353281400D+00
  0.3530512200D+01  0.4446345400D+00
 s    3 1.00
  0.2941249400D+01 -0.9996722841D-01
  0.6834831000D+00  0.3995128277D+00
  0.2222899200D+00  0.7001154659D+00
 p    3 1.00
  0.2941249400D+01  0.1559162705D+00
  0.6834831000D+00  0.6076837218D+00
  0.2222899200D+00  0.3919573912D+00
  
 26 0
 s    3 1.00
  0.7161683700D+02  0.1543289700D+00
  0.1304509600D+02  0.5353281400D+00
  0.3530512200D+01  0.4446345400D+00
 s    3 1.00
  0.2941249400D+01 -0.9996722841D-01
  0.6834831000D+00  0.3995128277D+00
  0.2222899200D+00  0.7001154659D+00
 p    3 1.00
  0.2941249400D+01  0.1559162705D+00
  0.6834831000D+00  0.6076837218D+00
  0.2222899200D+00  0.3919573912D+00
  
 30 0
 s    3 1.00
  0.7161683700D+02  0.1543289700D+00
  0.1304509600D+02  0.5353281400D+00
  0.3530512200D+01  0.4446345400D+00
 s    3 1.00
  0.2941249400D+01 -0.9996722841D-01
  0.6834831000D+00  0.3995128277D+00
  0.2222899200D+00  0.7001154659D+00
 p    3 1.00
  0.2941249400D+01  0.1559162705D+00
  0.6834831000D+00  0.6076837218D+00
  0.2222899200D+00  0.3919573912D+00
  
  9 0
 s    3 1.00
  0.7161683700D+02  0.1543289700D+00
  0.1304509600D+02  0.5353281400D+00
  0.3530512200D+01  0.4446345400D+00
 s    3 1.00
  0.2941249400D+01 -0.9996722841D-01
  0.6834831000D+00  0.3995128277D+00
  0.2222899200D+00  0.7001154659D+00
 p    3 1.00
  0.2941249400D+01  0.1559162705D+00
  0.6834831000D+00  0.6076837218D+00
  0.2222899200D+00  0.3919573912D+00
  
 11 0
 s    3 1.00
  0.7161683700D+02  0.1543289700D+00
  0.1304509600D+02  0.5353281400D+00
  0.3530512200D+01  0.4446345400D+00
 s    3 1.00
  0.2941249400D+01 -0.9996722841D-01
  0.6834831000D+00  0.3995128277D+00
  0.2222899200D+00  0.7001154659D+00
 p    3 1.00
  0.2941249400D+01  0.1559162705D+00
  0.6834831000D+00  0.6076837218D+00
  0.2222899200D+00  0.3919573912D+00
  
 15 0
 s    3 1.00
  0.7161683700D+02  0.1543289700D+00
  0.1304509600D+02  0.5353281400D+00
  0.3530512200D+01  0.4446345400D+00
 s    3 1.00
  0.2941249400D+01 -0.9996722841D-01
  0.6834831000D+00  0.3995128277D+00
  0.2222899200D+00  0.7001154659D+00
 p    3 1.00
  0.2941249400D+01  0.1559162705D+00
  0.6834831000D+00  0.6076837218D+00
  0.2222899200D+00  0.3919573912D+00
  
 17 0
 s    3 1.00
  0.7161683700D+02  0.1543289700D+00
  0.1304509600D+02  0.5353281400D+00
  0.3530512200D+01  0.4446345400D+00
 s    3 1.00
  0.2941249400D+01 -0.9996722841D-01
  0.6834831000D+00  0.3995128277D+00
  0.2222899200D+00  0.7001154659D+00
 p    3 1.00
  0.2941249400D+01  0.1559162705D+00
  0.6834831000D+00  0.6076837218D+00
  0.2222899200D+00  0.3919573912D+00
  
 21 0
 s    3 1.00
  0.7161683700D+02  0.1543289700D+00
  0.1304509600D+02  0.5353281400D+00
  0.3530512200D+01  0.4446345400D+00
 s    3 1.00
  0.2941249400D+01 -0.9996722841D-01
  0.6834831000D+00  0.3995128277D+00
  0.2222899200D+00  0.7001154659D+00
 p    3 1.00
  0.2941249400D+01  0.1559162705D+00
  0.6834831000D+00  0.6076837218D+00
  0.2222899200D+00  0.3919573912D+00
  
 23 0
 s    3 1.00
  0.7161683700D+02  0.1543289700D+00
  0.1304509600D+02  0.5353281400D+00
  0.3530512200D+01  0.4446345400D+00
 s    3 1.00
  0.2941249400D+01 -0.9996722841D-01
  0.6834831000D+00  0.3995128277D+00
  0.2222899200D+00  0.7001154659D+00
 p    3 1.00
  0.2941249400D+01  0.1559162705D+00
  0.6834831000D+00  0.6076837218D+00
  0.2222899200D+00  0.3919573912D+00
  
 27 0
 s    3 1.00
  0.7161683700D+02  0.1543289700D+00
  0.1304509600D+02  0.5353281400D+00
  0.3530512200D+01  0.4446345400D+00
 s    3 1.00
  0.2941249400D+01 -0.9996722841D-01
  0.6834831000D+00  0.3995128277D+00
  0.2222899200D+00  0.7001154659D+00
 p    3 1.00
  0.2941249400D+01  0.1559162705D+00
  0.6834831000D+00  0.6076837218D+00
  0.2222899200D+00  0.3919573912D+00
  
 29 0
 s    3 1.00
  0.7161683700D+02  0.1543289700D+00
  0.1304509600D+02  0.5353281400D+00
  0.3530512200D+01  0.4446345400D+00
 s    3 1.00
  0.2941249400D+01 -0.9996722841D-01
  0.6834831000D+00  0.3995128277D+00
  0.2222899200D+00  0.7001154659D+00
 p    3 1.00
  0.2941249400D+01  0.1559162705D+00
  0.6834831000D+00  0.6076837218D+00
  0.2222899200D+00  0.3919573912D+00
  
 10 0
 s    3 1.00
  0.7161683700D+02  0.1543289700D+00
  0.1304509600D+02  0.5353281400D+00
  0.3530512200D+01  0.4446345400D+00
 s    3 1.00
  0.2941249400D+01 -0.9996722841D-01
  0.6834831000D+00  0.3995128277D+00
  0.2222899200D+00  0.7001154659D+00
 p    3 1.00
  0.2941249400D+01  0.1559162705D+00
  0.6834831000D+00  0.6076837218D+00
  0.2222899200D+00  0.3919573912D+00
  
 16 0
 s    3 1.00
  0.7161683700D+02  0.1543289700D+00
  0.1304509600D+02  0.5353281400D+00
  0.3530512200D+01  0.4446345400D+00
 s    3 1.00
  0.2941249400D+01 -0.9996722841D-01
  0.6834831000D+00  0.3995128277D+00
  0.2222899200D+00  0.7001154659D+00
 p    3 1.00
  0.2941249400D+01  0.1559162705D+00
  0.6834831000D+00  0.6076837218D+00
  0.2222899200D+00  0.3919573912D+00
  
 22 0
 s    3 1.00
  0.7161683700D+02  0.1543289700D+00
  0.1304509600D+02  0.5353281400D+00
  0.3530512200D+01  0.4446345400D+00
 s    3 1.00
  0.2941249400D+01 -0.9996722841D-01
  0.6834831000D+00  0.3995128277D+00
  0.2222899200D+00  0.7001154659D+00
 p    3 1.00
  0.2941249400D+01  0.1559162705D+00
  0.6834831000D+00  0.6076837218D+00
  0.2222899200D+00  0.3919573912D+00
  
 28 0
 s    3 1.00
  0.7161683700D+02  0.1543289700D+00
  0.1304509600D+02  0.5353281400D+00
  0.3530512200D+01  0.4446345400D+00
 s    3 1.00
  0.2941249400D+01 -0.9996722841D-01
  0.6834831000D+00  0.3995128277D+00
  0.2222899200D+00  0.7001154659D+00
 p    3 1.00
  0.2941249400D+01  0.1559162705D+00
  0.6834831000D+00  0.6076837218D+00
  0.2222899200D+00  0.3919573912D+00
 
 
[MO]
 Ene=     -11.0451
 Spin= Alpha
 Occup=   2.000000
   1   0.00000000000
   2   0.00000000000
   3   0.00000000000
   4   0.00000000000
   5  -0.00000000012
   6  -0.00000000012
   7   0.00000000012
   8   0.00000000012
   9  -0.00000000012
  10  -0.00000000012
  11   0.00000000012
  12   0.00000000012
  13   0.00000000000
  14   0.00000000000
  15   0.00000000000
  16  -0.00215527533
  17   0.00000000000
  18   0.00000000000
  19   0.00000000000
  20   0.00000000000
  21  -0.00215527533
  22   0.00000000000
  23   0.00000000000
  24   0.00000000000
  25   0.00000000000
  26  -0.00215527533
  27   0.00000000000
  28   0.00000000000
  29   0.00000000000
  30   0.00000000000
  31  -0.00215527533
  32   0.00000000000
  33   0.28647815614
  34   0.00867792977
  35  -0.00064471228
  36  -0.00037222517
  37   0.00120414955
  38   0.28647815614
  39   0.00867792977
  40   0.00064471228
  41  -0.00037222517
  42   0.00120414955
  43  -0.28647815614
  44  -0.00867792977
  45  -0.00064471228
  46  -0.00037222517
  47  -0.00120414955
  48  -0.28647815614
  49  -0.00867792977
  50   0.00064471228
  51  -0.00037222517
  52  -0.00120414955
  53   0.28647815614
  54   0.00867792977
  55  -0.00064471228
  56  -0.00037222517
  57  -0.00120414955
  58   0.28647815614
  59   0.00867792977
  60   0.00064471228
  61  -0.00037222517
  62  -0.00120414955
  63  -0.28647815614
  64  -0.00867792977
  65  -0.00064471228
  66  -0.00037222517
  67   0.00120414955
  68  -0.28647815614
  69  -0.00867792977
  70   0.00064471228
  71  -0.00037222517
  72   0.00120414955
  73   0.00000001761
  74  -0.00000000641
  75  -0.00186651891
  76   0.00107763654
  77   0.00000000225
  78   0.00000001761
  79  -0.00000000641
  80   0.00186651891
  81   0.00107763654
  82   0.00000000225
  83  -0.00000001761
  84   0.00000000641
  85  -0.00186651891
  86   0.00107763654
  87  -0.00000000225
  88  -0.00000001761
  89   0.00000000641
  90   0.00186651891
  91   0.00107763654
  92  -0.00000000225
  93   0.00000001761
  94  -0.00000000641
  95  -0.00186651891
  96   0.00107763654
  97  -0.00000000225
  98   0.00000001761
  99  -0.00000000641
 100   0.00186651891
 101   0.00107763654
 102  -0.00000000225
 103  -0.00000001761
 104   0.00000000641
 105  -0.00186651891
 106   0.00107763654
 107   0.00000000225
 108  -0.00000001761
 109   0.00000000641
 110   0.00186651891
 111   0.00107763654
 112   0.00000000225
 113  -0.28647711256
 114  -0.00867789858
 115   0.00000000000
 116   0.00074444806
 117  -0.00120414468
 118   0.28647711256
 119   0.00867789858
 120   0.00000000000
 121   0.00074444806
 122   0.00120414468
 123  -0.28647711256
 124  -0.00867789858
 125   0.00000000000
 126   0.00074444806
 127   0.00120414468
 128   0.28647711256
 129   0.00867789858
 130   0.00000000000
 131   0.00074444806
 132  -0.00120414468
 Ene=     -11.0450
 Spin= Alpha
 Occup=   2.000000
   1   0.00000000000
   2   0.00000000000
   3   0.00000000000
   4   0.00000000000
   5   0.00000000050
   6   0.00000000050
   7  -0.00000000050
   8  -0.00000000050
   9  -0.00000000050
  10  -0.00000000050
  11   0.00000000050
  12   0.00000000050
  13   0.00000000000
  14   0.00000000000
  15   0.00000000000
  16  -0.00221791381
  17   0.00000000000
  18   0.00000000000
  19   0.00000000000
  20   0.00000000000
  21  -0.00221791381
  22   0.00000000000
  23   0.00000000000
  24   0.00000000000
  25   0.00000000000
  26   0.00221791381
  27   0.00000000000
  28   0.00000000000
  29   0.00000000000
  30   0.00000000000
  31   0.00221791381
  32   0.00000000000
  33   0.28624582565
  34   0.01235380580
  35  -0.00060876389
  36  -0.00035146960
  37  -0.00123361503
  38   0.28624582565
  39   0.01235380580
  40   0.00060876389
  41  -0.00035146960
  42  -0.00123361503
  43  -0.28624582565
  44  -0.01235380580
  45  -0.00060876389
  46  -0.00035146960
  47   0.00123361503
  48  -0.28624582565
  49  -0.01235380580
  50   0.00060876389
  51  -0.00035146960
  52   0.00123361503
  53  -0.28624582565
  54  -0.01235380580
  55   0.00060876389
  56   0.00035146960
  57  -0.00123361503
  58  -0.28624582565
  59  -0.01235380580
  60  -0.00060876389
  61   0.00035146960
  62  -0.00123361503
  63   0.28624582565
  64   0.01235380580
  65   0.00060876389
  66   0.00035146960
  67   0.00123361503
  68   0.28624582565
  69   0.01235380580
  70  -0.00060876389
  71   0.00035146960
  72   0.00123361503
  73   0.00000005171
  74  -0.00000003665
  75  -0.00192074841
  76   0.00110895241
  77   0.00000001160
  78   0.00000005171
  79  -0.00000003665
  80   0.00192074841
  81   0.00110895241
  82   0.00000001160
  83  -0.00000005171
  84   0.00000003665
  85  -0.00192074841
  86   0.00110895241
  87  -0.00000001160
  88  -0.00000005171
  89   0.00000003665
  90   0.00192074841
  91   0.00110895241
  92  -0.00000001160
  93  -0.00000005171
  94   0.00000003665
  95   0.00192074841
  96  -0.00110895241
  97   0.00000001160
  98  -0.00000005171
  99   0.00000003665
 100  -0.00192074841
 101  -0.00110895241
 102   0.00000001160
 103   0.00000005171
 104  -0.00000003665
 105   0.00192074841
 106  -0.00110895241
 107  -0.00000001160
 108   0.00000005171
 109  -0.00000003665
 110  -0.00192074841
 111  -0.00110895241
 112  -0.00000001160
 113  -0.28624052390
 114  -0.01235357588
 115   0.00000000000
 116   0.00070292765
 117   0.00123359284
 118   0.28624052390
 119   0.01235357588
 120   0.00000000000
 121   0.00070292765
 122  -0.00123359284
 123   0.28624052390
 124   0.01235357588
 125   0.00000000000
 126  -0.00070292765
 127   0.00123359284
 128  -0.28624052390
 129  -0.01235357588
 130   0.00000000000
 131  -0.00070292765
 132  -0.00123359284
 Ene=     -11.0450
 Spin= Alpha
 Occup=   2.000000
   1   0.00000000000
   2   0.00000000000
   3   0.00000000000
   4   0.00000000000
   5  -0.00000476459
   6   0.00000476459
   7  -0.00000476459
   8   0.00000476459
   9  -0.00000476459
  10   0.00000476459
  11  -0.00000476459
  12   0.00000476459
  13   0.00000000000
  14   0.00000000000
  15   0.00000000000
  16  -0.00266675254
  17   0.00000000000
  18   0.00000000000
  19   0.00000000000
  20   0.00000000000
  21   0.00266675254
  22   0.00000000000
  23   0.00000000000
  24   0.00000000000
  25   0.00000000000
  26  -0.00266675254
  27   0.00000000000
  28   0.00000000000
  29   0.00000000000
  30   0.00000000000
  31   0.00266675254
  32   0.00000000000
  33   0.35089453662
  34   0.01061721345
  35  -0.00066717476
  36  -0.00045351084
  37   0.00154650757
  38  -0.35089453662
  39  -0.01061721345
  40  -0.00066717476
  41   0.00045351084
  42  -0.00154650757
  43   0.35089453662
  44   0.01061721345
  45   0.00066717476
  46   0.00045351084
  47   0.00154650757
  48  -0.35089453662
  49  -0.01061721345
  50   0.00066717476
  51  -0.00045351084
  52  -0.00154650757
  53   0.35089453662
  54   0.01061721345
  55  -0.00066717476
  56  -0.00045351084
  57  -0.00154650757
  58  -0.35089453662
  59  -0.01061721345
  60  -0.00066717476
  61   0.00045351084
  62   0.00154650757
  63   0.35089453662
  64   0.01061721345
  65   0.00066717476
  66   0.00045351084
  67  -0.00154650757
  68  -0.35089453662
  69  -0.01061721345
  70   0.00066717476
  71  -0.00045351084
  72   0.00154650757
  73   0.00133772779
  74  -0.00233458489
  75  -0.00092326049
  76   0.00106761836
  77   0.00077635243
  78  -0.00133772779
  79   0.00233458489
  80  -0.00092326049
  81  -0.00106761836
  82  -0.00077635243
  83   0.00133772779
  84  -0.00233458489
  85   0.00092326049
  86  -0.00106761836
  87   0.00077635243
  88  -0.00133772779
  89   0.00233458489
  90   0.00092326049
  91   0.00106761836
  92  -0.00077635243
  93   0.00133772779
  94  -0.00233458489
  95  -0.00092326049
  96   0.00106761836
  97  -0.00077635243
  98  -0.00133772779
  99   0.00233458489
 100  -0.00092326049
 101  -0.00106761836
 102   0.00077635243
 103   0.00133772779
 104  -0.00233458489
 105   0.00092326049
 106  -0.00106761836
 107  -0.00077635243
 108  -0.00133772779
 109   0.00233458489
 110   0.00092326049
 111   0.00106761836
 112   0.00077635243
 113   0.00000000000
 114   0.00000000000
 115  -0.00011832901
 116   0.00000000000
 117   0.00000000000
 118   0.00000000000
 119   0.00000000000
 120   0.00011832901
 121   0.00000000000
 122   0.00000000000
 123   0.00000000000
 124   0.00000000000
 125  -0.00011832901
 126   0.00000000000
 127   0.00000000000
 128   0.00000000000
 129   0.00000000000
 130   0.00011832901
 131   0.00000000000
 132   0.00000000000
 Ene=     -11.0450
 Spin= Alpha
 Occup=   2.000000
   1   0.00000550180
   2   0.00000550180
   3   0.00000550180
   4   0.00000550180
   5  -0.00000275073
   6  -0.00000275073
   7  -0.00000275073
   8  -0.00000275073
   9  -0.00000275073
  10  -0.00000275073
  11  -0.00000275073
  12  -0.00000275073
  13  -0.00154466668
  14   0.00269575365
  15  -0.00053457492
  16   0.00000000000
  17  -0.00089645695
  18  -0.00154466668
  19   0.00269575365
  20   0.00053457492
  21   0.00000000000
  22  -0.00089645695
  23  -0.00154466668
  24   0.00269575365
  25  -0.00053457492
  26   0.00000000000
  27   0.00089645695
  28  -0.00154466668
  29   0.00269575365
  30   0.00053457492
  31   0.00000000000
  32   0.00089645695
  33  -0.20258955587
  34  -0.00612986602
  35   0.00045351133
  36   0.00014350615
  37  -0.00089287903
  38  -0.20258955587
  39  -0.00612986602
  40  -0.00045351133
  41   0.00014350615
  42  -0.00089287903
  43  -0.20258955587
  44  -0.00612986602
  45  -0.00045351133
  46  -0.00014350615
  47  -0.00089287903
  48  -0.20258955587
  49  -0.00612986602
  50   0.00045351133
  51  -0.00014350615
  52  -0.00089287903
  53  -0.20258955587
  54  -0.00612986602
  55   0.00045351133
  56   0.00014350615
  57   0.00089287903
  58  -0.20258955587
  59  -0.00612986602
  60  -0.00045351133
  61   0.00014350615
  62   0.00089287903
  63  -0.20258955587
  64  -0.00612986602
  65  -0.00045351133
  66  -0.00014350615
  67   0.00089287903
  68  -0.20258955587
  69  -0.00612986602
  70   0.00045351133
  71  -0.00014350615
  72   0.00089287903
  73   0.00077231448
  74  -0.00134786728
  75   0.00213370721
  76  -0.00092326138
  77   0.00044822520
  78   0.00077231448
  79  -0.00134786728
  80  -0.00213370721
  81  -0.00092326138
  82   0.00044822520
  83   0.00077231448
  84  -0.00134786728
  85  -0.00213370721
  86   0.00092326138
  87   0.00044822520
  88   0.00077231448
  89  -0.00134786728
  90   0.00213370721
  91   0.00092326138
  92   0.00044822520
  93   0.00077231448
  94  -0.00134786728
  95   0.00213370721
  96  -0.00092326138
  97  -0.00044822520
  98   0.00077231448
  99  -0.00134786728
 100  -0.00213370721
 101  -0.00092326138
 102  -0.00044822520
 103   0.00077231448
 104  -0.00134786728
 105  -0.00213370721
 106   0.00092326138
 107  -0.00044822520
 108   0.00077231448
 109  -0.00134786728
 110   0.00213370721
 111   0.00092326138
 112  -0.00044822520
 113   0.40517760976
 114   0.01225968730
 115   0.00000000000
 116  -0.00092900873
 117   0.00178575079
 118   0.40517760976
 119   0.01225968730
 120   0.00000000000
 121   0.00092900873
 122   0.00178575079
 123   0.40517760976
 124   0.01225968730
 125   0.00000000000
 126  -0.00092900873
 127  -0.00178575079
 128   0.40517760976
 129   0.01225968730
 130   0.00000000000
 131   0.00092900873