[Molden Format]
[GTO]

    1 0
 s   6 1.00
      71.6168370    0.1543289700
      13.0450960    0.5353281400
       3.5305122    0.4446345400
       2.9412494    0.0000000000
       0.6834831    0.0000000000
       0.2222899    0.0000000000
 s   6 1.00
      71.6168370    0.0000000000
      13.0450960    0.0000000000
       3.5305122    0.0000000000
       2.9412494   -0.0999672300
       0.6834831    0.3995128300
       0.2222899    0.7001154700
 p   3 1.00
       2.9412494    0.1559162700
       0.6834831    0.6076837200
       0.2222899    0.3919573900

    2 0
 s   6 1.00
     130.7093200    0.1543289700
      23.8088610    0.5353281400
       6.4436083    0.4446345400
       5.0331513    0.0000000000
       1.1695961    0.0000000000
       0.3803890    0.0000000000
 s   6 1.00
     130.7093200    0.0000000000
      23.8088610    0.0000000000
       6.4436083    0.0000000000
       5.0331513   -0.0999672300
       1.1695961    0.3995128300
       0.3803890    0.7001154700
 p   3 1.00
       5.0331513    0.1559162700
       1.1695961    0.6076837200
       0.3803890    0.3919573900

    3 0
 s   3 1.00
       3.4252509    0.1543289700
       0.6239137    0.5353281400
       0.1688554    0.4446345400

    4 0
 s   3 1.00
       3.4252509    0.1543289700
       0.6239137    0.5353281400
       0.1688554    0.4446345400
[SCFCONV]
scf-first  1  THROUGH  18
     -112.1284257116
     -112.2793101892
     -112.3534211986
     -112.3536759382
     -112.3536950144
     -112.3536974230
     -112.3536975085
     -112.3536975095
     -112.3536975095
     -112.3536975095
     -112.3536975095
     -112.3536975095
     -112.3536975095
     -112.3536975095
     -112.3536975095
     -112.3536975095
     -112.3536975095
     -112.3536975095

[5D]

[MO]
Ene=  -20.3116
Spin= Alpha
Occup= 2.0000
    1       -0.990007
    2        0.000006
    3       -0.000001
    4       -0.000000
    5        0.000005
    6       -0.000001
    7       -0.000007
    8       -0.000007
    9       -0.000000
   10        0.000008
   11       -0.000008
   12       -0.000001
Ene=  -11.1254
Spin= Alpha
Occup= 2.0000
    1       -0.000007
    2        0.990006
    3       -0.000001
    4       -0.000000
    5        0.000005
    6       -0.000001
    7       -0.000007
    8       -0.000007
    9       -0.000000
   10        0.000008
   11       -0.000008
   12       -0.000001
Ene=   -1.3419
Spin= Alpha
Occup= 2.0000
    1       -0.000007
    2        0.000006
    3       -0.990001
    4       -0.000000
    5        0.000005
    6       -0.000001
    7       -0.000007
    8       -0.000007
    9       -0.000000
   10        0.000008
   11       -0.000008
   12       -0.000001
Ene=   -0.8037
Spin= Alpha
Occup= 2.0000
    1       -0.000007
    2        0.000006
    3       -0.000001
    4       -0.990000
    5        0.000005
    6       -0.000001
    7       -0.000007
    8       -0.000007
    9       -0.000000
   10        0.000008
   11       -0.000008
   12       -0.000001
Ene=   -0.6388
Spin= Alpha
Occup= 2.0000
    1       -0.000007
    2        0.000006
    3       -0.000001
    4       -0.000000
    5        0.990005
    6       -0.000001
    7       -0.000007
    8       -0.000007
    9       -0.000000
   10        0.000008
   11       -0.000008
   12       -0.000001
Ene=   -0.5443
Spin= Alpha
Occup= 2.0000
    1       -0.000007
    2        0.000006
    3       -0.000001
    4       -0.000000
    5        0.000005
    6       -0.990001
    7       -0.000007
    8       -0.000007
    9       -0.000000
   10        0.000008
   11       -0.000008
   12       -0.000001
Ene=   -0.4462
Spin= Alpha
Occup= 2.0000
    1       -0.000007
    2        0.000006
    3       -0.000001
    4       -0.000000
    5        0.000005
    6       -0.000001
    7       -0.990007
    8       -0.000007
    9       -0.000000
   10        0.000008
   11       -0.000008
   12       -0.000001
Ene=   -0.3536
Spin= Alpha
Occup= 2.0000
    1       -0.000007
    2        0.000006
    3       -0.000001
    4       -0.000000
    5        0.000005
    6       -0.000001
    7       -0.000007
    8       -0.990007
    9       -0.000000
   10        0.000008
   11       -0.000008
   12       -0.000001
Ene=    0.2858
Spin= Alpha
Occup= 0.0000
    1       -0.000007
    2        0.000006
    3       -0.000001
    4       -0.000000
    5        0.000005
    6       -0.000001
    7       -0.000007
    8       -0.000007
    9       -0.990000
   10        0.000008
   11       -0.000008
   12       -0.000001
Ene=    0.6201
Spin= Alpha
Occup= 0.0000
    1       -0.000007
    2        0.000006
    3       -0.000001
    4       -0.000000
    5        0.000005
    6       -0.000001
    7       -0.000007
    8       -0.000007
    9       -0.000000
   10        0.990008
   11       -0.000008
   12       -0.000001
Ene=    0.7457
Spin= Alpha
Occup= 0.0000
    1       -0.000007
    2        0.000006
    3       -0.000001
    4       -0.000000
    5        0.000005
    6       -0.000001
    7       -0.000007
    8       -0.000007
    9       -0.000000
   10        0.000008
   11       -0.990008
   12       -0.000001
Ene=    0.9210
Spin= Alpha
Occup= 0.0000
    1       -0.000007
    2        0.000006
    3       -0.000001
    4       -0.000000
    5        0.000005
    6       -0.000001
    7       -0.000007
    8       -0.000007
    9       -0.000000
   10        0.000008
   11       -0.000008
   12       -0.990001
[Atoms] AU
C          1     6         0.0021145386         0.0000000000        -1.1458229866
O          2     8         0.0000000000         0.0000000000         1.1394188421
H          3     1         1.7725477356         0.0111500657        -2.2380521774
H          4     1        -1.7977251853        -0.0111500657        -2.2022342707
